VARIABLES="X","Y","Z","Rho","U","V","W","P","E"
ZONE T="Element"
Nodes=5654, Elements=2717, ZONETYPE=FEBRICK
DATAPACKING=BLOCK, VARLOCATION=([4-9]=CELLCENTERED)
3.564493358000e-01
3.789394796000e-01
3.793519437000e-01
3.565839231000e-01
3.564493358000e-01
3.789394796000e-01
3.793519437000e-01
3.565839231000e-01
4.017418623000e-01
4.024268985000e-01
4.017418623000e-01
4.024268985000e-01
4.248151183000e-01
4.257659614000e-01
4.248151183000e-01
4.257659614000e-01
4.481168985000e-01
4.493253231000e-01
4.481168985000e-01
4.493253231000e-01
4.716038704000e-01
4.730603099000e-01
4.716038704000e-01
4.730603099000e-01
4.952317476000e-01
4.969252646000e-01
4.952317476000e-01
4.969252646000e-01
5.189551115000e-01
5.208734870000e-01
5.189551115000e-01
5.208734870000e-01
5.427274108000e-01
5.448572040000e-01
5.427274108000e-01
5.448572040000e-01
5.665009022000e-01
5.688275695000e-01
5.665009022000e-01
5.688275695000e-01
5.902266502000e-01
5.927345753000e-01
5.902266502000e-01
5.927345753000e-01
6.138545275000e-01
6.165271997000e-01
6.138545275000e-01
6.165271997000e-01
6.373330951000e-01
6.401531100000e-01
6.373330951000e-01
6.401531100000e-01
6.606098413000e-01
6.635590196000e-01
6.606098413000e-01
6.635590196000e-01
6.836308837000e-01
6.866904497000e-01
6.836308837000e-01
6.866904497000e-01
7.063412666000e-01
7.094919086000e-01
7.063412666000e-01
7.094919086000e-01
7.286850214000e-01
7.319069505000e-01
7.286850214000e-01
7.319069505000e-01
7.506051064000e-01
7.538782954000e-01
7.506051064000e-01
7.538782954000e-01
7.720434666000e-01
7.753477693000e-01
7.720434666000e-01
7.753477693000e-01
7.929415703000e-01
7.962567210000e-01
7.929415703000e-01
7.962567210000e-01
8.132399917000e-01
8.165458441000e-01
8.132399917000e-01
8.165458441000e-01
8.328789473000e-01
8.361555934000e-01
8.328789473000e-01
8.361555934000e-01
8.517982960000e-01
8.550261855000e-01
8.517982960000e-01
8.550261855000e-01
8.699377775000e-01
8.730978370000e-01
8.699377775000e-01
8.730978370000e-01
8.872371912000e-01
8.903110623000e-01
8.872371912000e-01
8.903110623000e-01
9.036366343000e-01
9.066066146000e-01
9.036366343000e-01
9.066066146000e-01
9.190764427000e-01
9.219259024000e-01
9.190764427000e-01
9.219259024000e-01
9.334976077000e-01
9.362109303000e-01
9.334976077000e-01
9.362109303000e-01
9.468418360000e-01
9.494045973000e-01
9.468418360000e-01
9.494045973000e-01
9.590516090000e-01
9.614508152000e-01
9.590516090000e-01
9.614508152000e-01
9.700700641000e-01
9.722942114000e-01
9.700700641000e-01
9.722942114000e-01
9.798411131000e-01
9.818804264000e-01
9.798411131000e-01
9.818804264000e-01
9.883087873000e-01
9.901555777000e-01
9.883087873000e-01
9.901555777000e-01
9.954169989000e-01
9.970656633000e-01
9.954169989000e-01
9.970656633000e-01
1.001107454000e+00
1.002555370000e+00
1.001107454000e+00
1.002555370000e+00
1.005316734000e+00
1.006565452000e+00
1.005316734000e+00
1.006565452000e+00
1.007967591000e+00
1.009028792000e+00
1.007967591000e+00
1.009028792000e+00
1.008930445000e+00
1.009866238000e+00
1.008930445000e+00
1.009866238000e+00
1.007967591000e+00
1.009028792000e+00
1.007967591000e+00
1.009028792000e+00
1.005316734000e+00
1.006565452000e+00
1.005316734000e+00
1.006565452000e+00
1.001107454000e+00
1.002555370000e+00
1.001107454000e+00
1.002555370000e+00
9.954169989000e-01
9.970656633000e-01
9.954169989000e-01
9.970656633000e-01
9.883087873000e-01
9.901555777000e-01
9.883087873000e-01
9.901555777000e-01
9.798411131000e-01
9.818804264000e-01
9.798411131000e-01
9.818804264000e-01
9.700700641000e-01
9.722942114000e-01
9.700700641000e-01
9.722942114000e-01
9.590516090000e-01
9.614508152000e-01
9.590516090000e-01
9.614508152000e-01
3.794428408000e-01
3.563510776000e-01
3.794428408000e-01
3.563510776000e-01
4.028372467000e-01
4.028372467000e-01
4.264899194000e-01
4.264899194000e-01
4.503555894000e-01
4.503555894000e-01
4.743881524000e-01
4.743881524000e-01
4.985405505000e-01
4.985405505000e-01
5.227648020000e-01
5.227648020000e-01
5.470118523000e-01
5.470118523000e-01
5.712316632000e-01
5.712316632000e-01
5.953731537000e-01
5.953731537000e-01
6.193842292000e-01
6.193842292000e-01
6.432117224000e-01
6.432117224000e-01
6.668014526000e-01
6.668014526000e-01
6.900982261000e-01
6.900982261000e-01
7.130460143000e-01
7.130460143000e-01
7.355878353000e-01
7.355878353000e-01
7.576659918000e-01
7.576659918000e-01
7.792221904000e-01
7.792221904000e-01
8.001975417000e-01
8.001975417000e-01
8.205327392000e-01
8.205327392000e-01
8.401684165000e-01
8.401684165000e-01
8.590450883000e-01
8.590450883000e-01
8.771033883000e-01
8.771033883000e-01
8.942843080000e-01
8.942843080000e-01
9.105293155000e-01
9.105293155000e-01
9.257807136000e-01
9.257807136000e-01
9.399815798000e-01
9.399815798000e-01
9.530760050000e-01
9.530760050000e-01
9.650093317000e-01
9.650093317000e-01
9.757279754000e-01
9.757279754000e-01
9.851795435000e-01
9.851795435000e-01
9.933127165000e-01
9.933127165000e-01
1.000077009000e+00
1.000077009000e+00
1.005421877000e+00
1.005421877000e+00
1.009296894000e+00
1.009296894000e+00
1.011651993000e+00
1.011651993000e+00
1.012443423000e+00
1.012443423000e+00
1.011651993000e+00
1.011651993000e+00
1.009296894000e+00
1.009296894000e+00
1.005421877000e+00
1.005421877000e+00
1.000077009000e+00
1.000077009000e+00
9.933127165000e-01
9.933127165000e-01
9.851795435000e-01
9.851795435000e-01
9.757279754000e-01
9.757279754000e-01
9.650093317000e-01
9.650093317000e-01
3.792162836000e-01
3.557531536000e-01
3.792162836000e-01
3.557531536000e-01
4.029786885000e-01
4.029786885000e-01
4.269944727000e-01
4.269944727000e-01
4.512168169000e-01
4.512168169000e-01
4.755981863000e-01
4.755981863000e-01
5.000900030000e-01
5.000900030000e-01
5.246430039000e-01
5.246430039000e-01
5.492066741000e-01
5.492066741000e-01
5.737298727000e-01
5.737298727000e-01
5.981603265000e-01
5.981603265000e-01
6.224448085000e-01
6.224448085000e-01
6.465291381000e-01
6.465291381000e-01
6.703582406000e-01
6.703582406000e-01
6.938762665000e-01
6.938762665000e-01
7.170262933000e-01
7.170262933000e-01
7.397509217000e-01
7.397509217000e-01
7.619919181000e-01
7.619919181000e-01
7.836906314000e-01
7.836906314000e-01
8.047879934000e-01
8.047879934000e-01
8.252246380000e-01
8.252246380000e-01
8.449411988000e-01
8.449411988000e-01
8.638783097000e-01
8.638783097000e-01
8.819769025000e-01
8.819769025000e-01
8.991785645000e-01
8.991785645000e-01
9.154253602000e-01
9.154253602000e-01
9.306603074000e-01
9.306603074000e-01
9.448275566000e-01
9.448275566000e-01
9.578723311000e-01
9.578723311000e-01
9.697415233000e-01
9.697415233000e-01
9.803832173000e-01
9.803832173000e-01
9.897474647000e-01
9.897474647000e-01
9.977856874000e-01
9.977856874000e-01
1.004451275000e+00
1.004451275000e+00
1.009699583000e+00
1.009699583000e+00
1.013488293000e+00
1.013488293000e+00
1.015780449000e+00
1.015780449000e+00
1.016548038000e+00
1.016548038000e+00
1.015780449000e+00
1.015780449000e+00
1.013488293000e+00
1.013488293000e+00
1.009699583000e+00
1.009699583000e+00
1.004451275000e+00
1.004451275000e+00
9.977856874000e-01
9.977856874000e-01
9.897474647000e-01
9.897474647000e-01
9.803832173000e-01
9.803832173000e-01
9.697415233000e-01
9.697415233000e-01
3.786753118000e-01
3.547914624000e-01
3.786753118000e-01
3.547914624000e-01
4.028560817000e-01
4.028560817000e-01
4.272862077000e-01
4.272862077000e-01
4.519173503000e-01
4.519173503000e-01
4.767003953000e-01
4.767003953000e-01
5.015853047000e-01
5.015853047000e-01
5.265212059000e-01
5.265212059000e-01
5.514564514000e-01
5.514564514000e-01
5.763384104000e-01
5.763384104000e-01
6.011135578000e-01
6.011135578000e-01
6.257275343000e-01
6.257275343000e-01
6.501251459000e-01
6.501251459000e-01
6.742503047000e-01
6.742503047000e-01
6.980462074000e-01
6.980462074000e-01
7.214552164000e-01
7.214552164000e-01
7.444192767000e-01
7.444192767000e-01
7.668795586000e-01
7.668795586000e-01
7.887769938000e-01
7.887769938000e-01
8.100521564000e-01
8.100521564000e-01
8.306455016000e-01
8.306455016000e-01
8.504975438000e-01
8.504975438000e-01
8.695490956000e-01
8.695490956000e-01
8.877413273000e-01
8.877413273000e-01
9.050160646000e-01
9.050160646000e-01
9.213159084000e-01
9.213159084000e-01
9.365847111000e-01
9.365847111000e-01
9.507673979000e-01
9.507673979000e-01
9.638104439000e-01
9.638104439000e-01
9.756621122000e-01
9.756621122000e-01
9.862723947000e-01
9.862723947000e-01
9.955934286000e-01
9.955934286000e-01
1.003579736000e+00
1.003579736000e+00
1.010188341000e+00
1.010188341000e+00
1.015379548000e+00
1.015379548000e+00
1.019118071000e+00
1.019118071000e+00
1.021374702000e+00
1.021374702000e+00
1.022129297000e+00
1.022129297000e+00
1.021374702000e+00
1.021374702000e+00
1.019118071000e+00
1.019118071000e+00
1.015379548000e+00
1.015379548000e+00
1.010188341000e+00
1.010188341000e+00
1.003579736000e+00
1.003579736000e+00
9.955934286000e-01
9.955934286000e-01
9.862723947000e-01
9.862723947000e-01
9.756621122000e-01
9.756621122000e-01
3.778221011000e-01
3.534663320000e-01
3.778221011000e-01
3.534663320000e-01
4.024733901000e-01
4.024733901000e-01
4.273709059000e-01
4.273709059000e-01
4.524646699000e-01
4.524646699000e-01
4.777039587000e-01
4.777039587000e-01
5.030371547000e-01
5.030371547000e-01
5.284119248000e-01
5.284119248000e-01
5.537750721000e-01
5.537750721000e-01
5.790725946000e-01
5.790725946000e-01
6.042496562000e-01
6.042496562000e-01
6.292505860000e-01
6.292505860000e-01
6.540190578000e-01
6.540190578000e-01
6.784979701000e-01
6.784979701000e-01
7.026294470000e-01
7.026294470000e-01
7.263550162000e-01
7.263550162000e-01
7.496157885000e-01
7.496157885000e-01
7.723523974000e-01
7.723523974000e-01
7.945051193000e-01
7.945051193000e-01
8.160141110000e-01
8.160141110000e-01
8.368195295000e-01
8.368195295000e-01
8.568617702000e-01
8.568617702000e-01
8.760815263000e-01
8.760815263000e-01
8.944200277000e-01
8.944200277000e-01
9.118194580000e-01
9.118194580000e-01
9.282228947000e-01
9.282228947000e-01
9.435746670000e-01
9.435746670000e-01
9.578205347000e-01
9.578205347000e-01
9.709081650000e-01
9.709081650000e-01
9.827870131000e-01
9.827870131000e-01
9.934087992000e-01
9.934087992000e-01
1.002727747000e+00
1.002727747000e+00
1.010701060000e+00
1.010701060000e+00
1.017289042000e+00
1.017289042000e+00
1.022456169000e+00
1.022456169000e+00
1.026171803000e+00
1.026171803000e+00
1.028411865000e+00
1.028411865000e+00
1.029160500000e+00
1.029160500000e+00
1.028411865000e+00
1.028411865000e+00
1.026171803000e+00
1.026171803000e+00
1.022456169000e+00
1.022456169000e+00
1.017289042000e+00
1.017289042000e+00
1.010701060000e+00
1.010701060000e+00
1.002727747000e+00
1.002727747000e+00
9.934087992000e-01
9.934087992000e-01
9.827870131000e-01
9.827870131000e-01
3.766579032000e-01
3.517771363000e-01
3.766579032000e-01
3.517771363000e-01
4.018336535000e-01
4.018336535000e-01
4.272533953000e-01
4.272533953000e-01
4.528654814000e-01
4.528654814000e-01
4.786173999000e-01
4.786173999000e-01
5.044559240000e-01
5.044559240000e-01
5.303270817000e-01
5.303270817000e-01
5.561761260000e-01
5.561761260000e-01
5.819475055000e-01
5.819475055000e-01
6.075850725000e-01
6.075850725000e-01
6.330318451000e-01
6.330318451000e-01
6.582300663000e-01
6.582300663000e-01
6.831215024000e-01
6.831215024000e-01
7.076472640000e-01
7.076472640000e-01
7.317479253000e-01
7.317479253000e-01
7.553635836000e-01
7.553635836000e-01
7.784340978000e-01
7.784340978000e-01
8.008991480000e-01
8.008991480000e-01
8.226983547000e-01
8.226983547000e-01
8.437714577000e-01
8.437714577000e-01
8.640584946000e-01
8.640584946000e-01
8.834999800000e-01
8.834999800000e-01
9.020372629000e-01
9.020372629000e-01
9.196125865000e-01
9.196125865000e-01
9.361692667000e-01
9.361692667000e-01
9.516521692000e-01
9.516521692000e-01
9.660078287000e-01
9.660078287000e-01
9.791847467000e-01
9.791847467000e-01
9.911335111000e-01
9.911335111000e-01
1.001807451000e+00
1.001807451000e+00
1.011162639000e+00
1.011162639000e+00
1.019158363000e+00
1.019158363000e+00
1.025757790000e+00
1.025757790000e+00
1.030928493000e+00
1.030928493000e+00
1.034643292000e+00
1.034643292000e+00
1.036881328000e+00
1.036881328000e+00
1.037629008000e+00
1.037629008000e+00
1.036881328000e+00
1.036881328000e+00
1.034643292000e+00
1.034643292000e+00
1.030928493000e+00
1.030928493000e+00
1.025757790000e+00
1.025757790000e+00
1.019158363000e+00
1.019158363000e+00
1.011162639000e+00
1.011162639000e+00
1.001807451000e+00
1.001807451000e+00
9.911335111000e-01
9.911335111000e-01
3.751829565000e-01
3.497222662000e-01
3.751829565000e-01
3.497222662000e-01
4.009390771000e-01
4.009390771000e-01
4.269378483000e-01
4.269378483000e-01
4.531257451000e-01
4.531257451000e-01
4.794484675000e-01
4.794484675000e-01
5.058510900000e-01
5.058510900000e-01
5.322779417000e-01
5.322779417000e-01
5.586725473000e-01
5.586725473000e-01
5.849778056000e-01
5.849778056000e-01
6.111360788000e-01
6.111360788000e-01
6.370888352000e-01
6.370888352000e-01
6.627770662000e-01
6.627770662000e-01
6.881411672000e-01
6.881411672000e-01
7.131210566000e-01
7.131210566000e-01
7.376561761000e-01
7.376561761000e-01
7.616857290000e-01
7.616857290000e-01
7.851486206000e-01
7.851486206000e-01
8.079836965000e-01
8.079836965000e-01
8.301299810000e-01
8.301299810000e-01
8.515265584000e-01
8.515265584000e-01
8.721131682000e-01
8.721131682000e-01
8.918300271000e-01
8.918300271000e-01
9.106182456000e-01
9.106182456000e-01
9.284201264000e-01
9.284201264000e-01
9.451791644000e-01
9.451791644000e-01
9.608406425000e-01
9.608406425000e-01
9.753515124000e-01
9.753515124000e-01
9.886609912000e-01
9.886609912000e-01
1.000720859000e+00
1.000720859000e+00
1.011485577000e+00
1.011485577000e+00
1.020912647000e+00
1.020912647000e+00
1.028963447000e+00
1.028963447000e+00
1.035603166000e+00
1.035603166000e+00
1.040801525000e+00
1.040801525000e+00
1.044533968000e+00
1.044533968000e+00
1.046781540000e+00
1.046781540000e+00
1.047532201000e+00
1.047532201000e+00
1.046781540000e+00
1.046781540000e+00
1.044533968000e+00
1.044533968000e+00
1.040801525000e+00
1.040801525000e+00
1.035603166000e+00
1.035603166000e+00
1.028963447000e+00
1.028963447000e+00
1.020912647000e+00
1.020912647000e+00
1.011485577000e+00
1.011485577000e+00
1.000720859000e+00
1.000720859000e+00
3.733966351000e-01
3.472990692000e-01
3.733966351000e-01
3.472990692000e-01
3.997910321000e-01
3.997910321000e-01
4.264275134000e-01
4.264275134000e-01
4.532507062000e-01
4.532507062000e-01
4.802043736000e-01
4.802043736000e-01
5.072317719000e-01
5.072317719000e-01
5.342753530000e-01
5.342753530000e-01
5.612769723000e-01
5.612769723000e-01
5.881778002000e-01
5.881778002000e-01
6.149185300000e-01
6.149185300000e-01
6.414390802000e-01
6.414390802000e-01
6.676789522000e-01
6.676789522000e-01
6.935771704000e-01
6.935771704000e-01
7.190722227000e-01
7.190722227000e-01
7.441024780000e-01
7.441024780000e-01
7.686058879000e-01
7.686058879000e-01
7.925203443000e-01
7.925203443000e-01
8.157839179000e-01
8.157839179000e-01
8.383346200000e-01
8.383346200000e-01
8.601110578000e-01
8.601110578000e-01
8.810523152000e-01
8.810523152000e-01
9.010981321000e-01
9.010981321000e-01
9.201894403000e-01
9.201894403000e-01
9.382683635000e-01
9.382683635000e-01
9.552783966000e-01
9.552783966000e-01
9.711650014000e-01
9.711650014000e-01
9.858756065000e-01
9.858756065000e-01
9.993599653000e-01
9.993599653000e-01
1.011570573000e+00
1.011570573000e+00
1.022462845000e+00
1.022462845000e+00
1.031995773000e+00
1.031995773000e+00
1.040131807000e+00
1.040131807000e+00
1.046837807000e+00
1.046837807000e+00
1.052085519000e+00
1.052085519000e+00
1.055851579000e+00
1.055851579000e+00
1.058118820000e+00
1.058118820000e+00
1.058875918000e+00
1.058875918000e+00
1.058118820000e+00
1.058118820000e+00
1.055851579000e+00
1.055851579000e+00
1.052085519000e+00
1.052085519000e+00
1.046837807000e+00
1.046837807000e+00
1.040131807000e+00
1.040131807000e+00
1.031995773000e+00
1.031995773000e+00
1.022462845000e+00
1.022462845000e+00
1.011570573000e+00
1.011570573000e+00
3.712973893000e-01
3.445039392000e-01
3.712973893000e-01
3.445039392000e-01
3.983899951000e-01
3.983899951000e-01
4.257249832000e-01
4.257249832000e-01
4.532449245000e-01
4.532449245000e-01
4.808916748000e-01
4.808916748000e-01
5.086064339000e-01
5.086064339000e-01
5.363298059000e-01
5.363298059000e-01
5.640017390000e-01
5.640017390000e-01
5.915616155000e-01
5.915616155000e-01
6.189482808000e-01
6.189482808000e-01
6.461000443000e-01
6.461000443000e-01
6.729547381000e-01
6.729547381000e-01
6.994498968000e-01
6.994498968000e-01
7.255226374000e-01
7.255226374000e-01
7.511097789000e-01
7.511097789000e-01
7.761481404000e-01
7.761481404000e-01
8.005745411000e-01
8.005745411000e-01
8.243257403000e-01
8.243257403000e-01
8.473390937000e-01
8.473390937000e-01
8.695521951000e-01
8.695521951000e-01
8.909034729000e-01
8.909034729000e-01
9.113321900000e-01
9.113321900000e-01
9.307787418000e-01
9.307787418000e-01
9.491850138000e-01
9.491850138000e-01
9.664944410000e-01
9.664944410000e-01
9.826523662000e-01
9.826523662000e-01
9.976065159000e-01
9.976065159000e-01
1.011307001000e+00
1.011307001000e+00
1.023706794000e+00
1.023706794000e+00
1.034762263000e+00
1.034762263000e+00
1.044432878000e+00
1.044432878000e+00
1.052682638000e+00
1.052682638000e+00
1.059479356000e+00
1.059479356000e+00
1.064795971000e+00
1.064795971000e+00
1.068610311000e+00
1.068610311000e+00
1.070906162000e+00
1.070906162000e+00
1.071672678000e+00
1.071672678000e+00
1.070906162000e+00
1.070906162000e+00
1.068610311000e+00
1.068610311000e+00
1.064795971000e+00
1.064795971000e+00
1.059479356000e+00
1.059479356000e+00
1.052682638000e+00
1.052682638000e+00
1.044432878000e+00
1.044432878000e+00
1.034762263000e+00
1.034762263000e+00
1.023706794000e+00
1.023706794000e+00
3.688827455000e-01
3.413322270000e-01
3.688827455000e-01
3.413322270000e-01
3.967356384000e-01
3.967356384000e-01
4.248320758000e-01
4.248320758000e-01
4.531124234000e-01
4.531124234000e-01
4.815164208000e-01
4.815164208000e-01
5.099832416000e-01
5.099832416000e-01
5.384514332000e-01
5.384514332000e-01
5.668588877000e-01
5.668588877000e-01
5.951431394000e-01
5.951431394000e-01
6.232410669000e-01
6.232410669000e-01
6.510891914000e-01
6.510891914000e-01
6.786236763000e-01
6.786236763000e-01
7.057802677000e-01
7.057802677000e-01
7.324944735000e-01
7.324944735000e-01
7.587016821000e-01
7.587016821000e-01
7.843374014000e-01
7.843374014000e-01
8.093369603000e-01
8.093369603000e-01
8.336361051000e-01
8.336361051000e-01
8.571709991000e-01
8.571709991000e-01
8.798782825000e-01
8.798782825000e-01
9.016956091000e-01
9.016956091000e-01
9.225614667000e-01
9.225614667000e-01
9.424157143000e-01
9.424157143000e-01
9.611997604000e-01
9.611997604000e-01
9.788566828000e-01
9.788566828000e-01
9.953318238000e-01
9.953318238000e-01
1.010572791000e+00
1.010572791000e+00
1.024529934000e+00
1.024529934000e+00
1.037156582000e+00
1.037156582000e+00
1.048409462000e+00
1.048409462000e+00
1.058248878000e+00
1.058248878000e+00
1.066639423000e+00
1.066639423000e+00
1.073549747000e+00
1.073549747000e+00
1.078953624000e+00
1.078953624000e+00
1.082829714000e+00
1.082829714000e+00
1.085162282000e+00
1.085162282000e+00
1.085941076000e+00
1.085941076000e+00
1.085162282000e+00
1.085162282000e+00
1.082829714000e+00
1.082829714000e+00
1.078953624000e+00
1.078953624000e+00
1.073549747000e+00
1.073549747000e+00
1.066639423000e+00
1.066639423000e+00
1.058248878000e+00
1.058248878000e+00
1.048409462000e+00
1.048409462000e+00
1.037156582000e+00
1.037156582000e+00
3.661492765000e-01
3.377783000000e-01
3.661492765000e-01
3.377783000000e-01
3.948268592000e-01
3.948268592000e-01
4.237498641000e-01
4.237498641000e-01
4.528564513000e-01
4.528564513000e-01
4.820841551000e-01
4.820841551000e-01
5.113698840000e-01
5.113698840000e-01
5.406500101000e-01
5.406500101000e-01
5.698603988000e-01
5.698603988000e-01
5.989363790000e-01
5.989363790000e-01
6.278128624000e-01
6.278128624000e-01
6.564244032000e-01
6.564244032000e-01
6.847051978000e-01
6.847051978000e-01
7.125893235000e-01
7.125893235000e-01
7.400105000000e-01
7.400105000000e-01
7.669025064000e-01
7.669025064000e-01
7.931991816000e-01
7.931991816000e-01
8.188345432000e-01
8.188345432000e-01
8.437429070000e-01
8.437429070000e-01
8.678593040000e-01
8.678593040000e-01
8.911191821000e-01
8.911191821000e-01
9.134591818000e-01
9.134591818000e-01
9.348170161000e-01
9.348170161000e-01
9.551317096000e-01
9.551317096000e-01
9.743440747000e-01
9.743440747000e-01
9.923968315000e-01
9.923968315000e-01
1.009234905000e+00
1.009234905000e+00
1.024805665000e+00
1.024805665000e+00
1.039059639000e+00
1.039059639000e+00
1.051950097000e+00
1.051950097000e+00
1.063434005000e+00
1.063434005000e+00
1.073472261000e+00
1.073472261000e+00
1.082029581000e+00
1.082029581000e+00
1.089075446000e+00
1.089075446000e+00
1.094584107000e+00
1.094584107000e+00
1.098534584000e+00
1.098534584000e+00
1.100911617000e+00
1.100911617000e+00
1.101705194000e+00
1.101705194000e+00
1.100911617000e+00
1.100911617000e+00
1.098534584000e+00
1.098534584000e+00
1.094584107000e+00
1.094584107000e+00
1.089075446000e+00
1.089075446000e+00
1.082029581000e+00
1.082029581000e+00
1.073472261000e+00
1.073472261000e+00
1.063434005000e+00
1.063434005000e+00
1.051950097000e+00
1.051950097000e+00
3.630926907000e-01
3.338354528000e-01
3.630926907000e-01
3.338354528000e-01
3.926616609000e-01
3.926616609000e-01
4.224787652000e-01
4.224787652000e-01
4.524798095000e-01
4.524798095000e-01
4.825999439000e-01
4.825999439000e-01
5.127737522000e-01
5.127737522000e-01
5.429352522000e-01
5.429352522000e-01
5.730180144000e-01
5.730180144000e-01
6.029552221000e-01
6.029552221000e-01
6.326795816000e-01
6.326795816000e-01
6.621235609000e-01
6.621235609000e-01
6.912193298000e-01
6.912193298000e-01
7.198988795000e-01
7.198988795000e-01
7.480942011000e-01
7.480942011000e-01
7.757372260000e-01
7.757372260000e-01
8.027600646000e-01
8.027600646000e-01
8.290951848000e-01
8.290951848000e-01
8.546754718000e-01
8.546754718000e-01
8.794343472000e-01
8.794343472000e-01
9.033061862000e-01
9.033061862000e-01
9.262264371000e-01
9.262264371000e-01
9.481316805000e-01
9.481316805000e-01
9.689601660000e-01
9.689601660000e-01
9.886518717000e-01
9.886518717000e-01
1.007148862000e+00
1.007148862000e+00
1.024395704000e+00
1.024395704000e+00
1.040339231000e+00
1.040339231000e+00
1.054929852000e+00
1.054929852000e+00
1.068120599000e+00
1.068120599000e+00
1.079868793000e+00
1.079868793000e+00
1.090135098000e+00
1.090135098000e+00
1.098884821000e+00
1.098884821000e+00
1.106087446000e+00
1.106087446000e+00
1.111717582000e+00
1.111717582000e+00
1.115754604000e+00
1.115754604000e+00
1.118183494000e+00
1.118183494000e+00
1.118994474000e+00
1.118994474000e+00
1.118183494000e+00
1.118183494000e+00
1.115754604000e+00
1.115754604000e+00
1.111717582000e+00
1.111717582000e+00
1.106087446000e+00
1.106087446000e+00
1.098884821000e+00
1.098884821000e+00
1.090135098000e+00
1.090135098000e+00
1.079868793000e+00
1.079868793000e+00
1.068120599000e+00
1.068120599000e+00
3.597077429000e-01
3.294959664000e-01
3.597077429000e-01
3.294959664000e-01
3.902373016000e-01
3.902373016000e-01
4.210185409000e-01
4.210185409000e-01
4.519847035000e-01
4.519847035000e-01
4.830684364000e-01
4.830684364000e-01
5.142018199000e-01
5.142018199000e-01
5.453164577000e-01
5.453164577000e-01
5.763435364000e-01
5.763435364000e-01
6.072137356000e-01
6.072137356000e-01
6.378574967000e-01
6.378574967000e-01
6.682050824000e-01
6.682050824000e-01
6.981863379000e-01
6.981863379000e-01
7.277313471000e-01
7.277313471000e-01
7.567698359000e-01
7.567698359000e-01
7.852318883000e-01
7.852318883000e-01
8.130478263000e-01
8.130478263000e-01
8.401482105000e-01
8.401482105000e-01
8.664642572000e-01
8.664642572000e-01
8.919280171000e-01
8.919280171000e-01
9.164723158000e-01
9.164723158000e-01
9.400312901000e-01
9.400312901000e-01
9.625403881000e-01
9.625403881000e-01
9.839366674000e-01
9.839366674000e-01
1.004159331000e+00
1.004159331000e+00
1.023149490000e+00
1.023149490000e+00
1.040850997000e+00
1.040850997000e+00
1.057210326000e+00
1.057210326000e+00
1.072177410000e+00
1.072177410000e+00
1.085705042000e+00
1.085705042000e+00
1.097750187000e+00
1.097750187000e+00
1.108273745000e+00
1.108273745000e+00
1.117240787000e+00
1.117240787000e+00
1.124621034000e+00
1.124621034000e+00
1.130389094000e+00
1.130389094000e+00
1.134524584000e+00
1.134524584000e+00
1.137012482000e+00
1.137012482000e+00
1.137843132000e+00
1.137843132000e+00
1.137012482000e+00
1.137012482000e+00
1.134524584000e+00
1.134524584000e+00
1.130389094000e+00
1.130389094000e+00
1.124621034000e+00
1.124621034000e+00
1.117240787000e+00
1.117240787000e+00
1.108273745000e+00
1.108273745000e+00
1.097750187000e+00
1.097750187000e+00
1.085705042000e+00
1.085705042000e+00
3.559882641000e-01
3.247510791000e-01
3.559882641000e-01
3.247510791000e-01
3.875502050000e-01
3.875502050000e-01
4.193681777000e-01
4.193681777000e-01
4.513727427000e-01
4.513727427000e-01
4.834938645000e-01
4.834938645000e-01
5.156610012000e-01
5.156610012000e-01
5.478030443000e-01
5.478030443000e-01
5.798487067000e-01
5.798487067000e-01
6.117261052000e-01
6.117261052000e-01
6.433632374000e-01
6.433632374000e-01
6.746878028000e-01
6.746878028000e-01
7.056274414000e-01
7.056274414000e-01
7.361097932000e-01
7.361097932000e-01
7.660625577000e-01
7.660625577000e-01
7.954136133000e-01
7.954136133000e-01
8.240911961000e-01
8.240911961000e-01
8.520240188000e-01
8.520240188000e-01
8.791415095000e-01
8.791415095000e-01
9.053739309000e-01
9.053739309000e-01
9.306524992000e-01
9.306524992000e-01
9.549098611000e-01
9.549098611000e-01
9.780801535000e-01
9.780801535000e-01
1.000099182000e+00
1.000099182000e+00
1.020905018000e+00
1.020905018000e+00
1.040437818000e+00
1.040437818000e+00
1.058640599000e+00
1.058640599000e+00
1.075459123000e+00
1.075459123000e+00
1.090842605000e+00
1.090842605000e+00
1.104743600000e+00
1.104743600000e+00
1.117118597000e+00
1.117118597000e+00
1.127928138000e+00
1.127928138000e+00
1.137137294000e+00
1.137137294000e+00
1.144715786000e+00
1.144715786000e+00
1.150637984000e+00
1.150637984000e+00
1.154883623000e+00
1.154883623000e+00
1.157437682000e+00
1.157437682000e+00
1.158290267000e+00
1.158290267000e+00
1.157437682000e+00
1.157437682000e+00
1.154883623000e+00
1.154883623000e+00
1.150637984000e+00
1.150637984000e+00
1.144715786000e+00
1.144715786000e+00
1.137137294000e+00
1.137137294000e+00
1.127928138000e+00
1.127928138000e+00
1.117118597000e+00
1.117118597000e+00
1.104743600000e+00
1.104743600000e+00
3.519271016000e-01
3.195908964000e-01
3.519271016000e-01
3.195908964000e-01
3.845960498000e-01
3.845960498000e-01
4.175261557000e-01
4.175261557000e-01
4.506451190000e-01
4.506451190000e-01
4.838801026000e-01
4.838801026000e-01
5.171577930000e-01
5.171577930000e-01
5.504043102000e-01
5.504043102000e-01
5.835454464000e-01
5.835454464000e-01
6.165068150000e-01
6.165068150000e-01
6.492136121000e-01
6.492136121000e-01
6.815910935000e-01
6.815910935000e-01
7.135642767000e-01
7.135642767000e-01
7.450582981000e-01
7.450582981000e-01
7.759985924000e-01
7.759985924000e-01
8.063105941000e-01
8.063105941000e-01
8.359205127000e-01
8.359205127000e-01
8.647548556000e-01
8.647548556000e-01
8.927410245000e-01
8.927410245000e-01
9.198074341000e-01
9.198074341000e-01
9.458835721000e-01
9.458835721000e-01
9.709004164000e-01
9.709004164000e-01
9.947904348000e-01
9.947904348000e-01
1.017488241000e+00
1.017488241000e+00
1.038930416000e+00
1.038930416000e+00
1.059056044000e+00
1.059056044000e+00
1.077807307000e+00
1.077807307000e+00
1.095128775000e+00
1.095128775000e+00
1.110969186000e+00
1.110969186000e+00
1.125280142000e+00
1.125280142000e+00
1.138017893000e+00
1.138017893000e+00
1.149142504000e+00
1.149142504000e+00
1.158618689000e+00
1.158618689000e+00
1.166415930000e+00
1.166415930000e+00
1.172508359000e+00
1.172508359000e+00
1.176875830000e+00
1.176875830000e+00
1.179502964000e+00
1.179502964000e+00
1.180379868000e+00
1.180379868000e+00
1.179502964000e+00
1.179502964000e+00
1.176875830000e+00
1.176875830000e+00
1.172508359000e+00
1.172508359000e+00
1.166415930000e+00
1.166415930000e+00
1.158618689000e+00
1.158618689000e+00
1.149142504000e+00
1.149142504000e+00
1.138017893000e+00
1.138017893000e+00
1.125280142000e+00
1.125280142000e+00
3.475162387000e-01
3.140044808000e-01
3.475162387000e-01
3.140044808000e-01
3.813696504000e-01
3.813696504000e-01
4.154901505000e-01
4.154901505000e-01
4.498024583000e-01
4.498024583000e-01
4.842307270000e-01
4.842307270000e-01
5.186986327000e-01
5.186986327000e-01
5.531293154000e-01
5.531293154000e-01
5.874457955000e-01
5.874457955000e-01
6.215705872000e-01
6.215705872000e-01
6.554262042000e-01
6.554262042000e-01
6.889349818000e-01
6.889349818000e-01
7.220193744000e-01
7.220193744000e-01
7.546018362000e-01
7.546018362000e-01
7.866051793000e-01
7.866051793000e-01
8.179525137000e-01
8.179525137000e-01
8.485674262000e-01
8.485674262000e-01
8.783743382000e-01
8.783743382000e-01
9.072984457000e-01
9.072984457000e-01
9.352660179000e-01
9.352660179000e-01
9.622046351000e-01
9.622046351000e-01
9.880434275000e-01
9.880434275000e-01
1.012713194000e+00
1.012713194000e+00
1.036146879000e+00
1.036146879000e+00
1.058279753000e+00
1.058279753000e+00
1.079049587000e+00
1.079049587000e+00
1.098397136000e+00
1.098397136000e+00
1.116266131000e+00
1.116266131000e+00
1.132604241000e+00
1.132604241000e+00
1.147362590000e+00
1.147362590000e+00
1.160496235000e+00
1.160496235000e+00
1.171965122000e+00
1.171965122000e+00
1.181733251000e+00
1.181733251000e+00
1.189769864000e+00
1.189769864000e+00
1.196048856000e+00
1.196048856000e+00
1.200549603000e+00
1.200549603000e+00
1.203256726000e+00
1.203256726000e+00
1.204160452000e+00
1.204160452000e+00
1.203256726000e+00
1.203256726000e+00
1.200549603000e+00
1.200549603000e+00
1.196048856000e+00
1.196048856000e+00
1.189769864000e+00
1.189769864000e+00
1.181733251000e+00
1.181733251000e+00
1.171965122000e+00
1.171965122000e+00
1.160496235000e+00
1.160496235000e+00
1.147362590000e+00
1.147362590000e+00
3.427465856000e-01
3.079797328000e-01
3.427465856000e-01
3.079797328000e-01
3.778650463000e-01
3.778650463000e-01