TITLE = "M6 WING - SURFACE PRESSURE DISTRIBUTIONS - TEST 2308 0.8395 3.0600  0.117E+08"
VARIABLES = "NP", "X/L", "Y/b", "Z/L", "Cp"
ZONE T="Section  1", I =   34, j=1, F=POINT
    12    9.50300E-01    2.00000E-01   -7.26000E-03    1.01000E-01
    11    8.15970E-01    2.00000E-01   -2.19300E-02   -7.90000E-02
    10    6.65930E-01    2.00000E-01   -3.58700E-02   -1.71000E-01
     9    5.65880E-01    2.00000E-01   -4.30100E-02   -2.29000E-01
     8    4.65990E-01    2.00000E-01   -4.77300E-02   -2.63000E-01
     7    3.65800E-01    2.00000E-01   -4.88900E-02   -2.15000E-01
     6    2.65790E-01    2.00000E-01   -4.70200E-02   -1.64000E-01
     5    1.65940E-01    2.00000E-01   -4.19400E-02   -9.20000E-02
     4    4.99300E-02    2.00000E-01   -2.97100E-02   -4.60000E-02
     3    2.00200E-02    2.00000E-01   -2.26800E-02   -3.40000E-02
     2    5.93000E-03    2.00000E-01   -1.33300E-02    5.49000E-01
     1    3.40000E-04    2.00000E-01    2.92000E-03    8.01000E-01
    34    2.16000E-03    2.00000E-01    8.02000E-03    4.44000E-01
    33    8.66000E-03    2.00000E-01    1.59200E-02   -1.68000E-01
    32    2.03700E-02    2.00000E-01    2.28500E-02   -7.07000E-01
    31    3.52500E-02    2.00000E-01    2.70100E-02   -1.06900E+00
    30    6.03600E-02    2.00000E-01    3.13000E-02   -6.29000E-01
    29    9.95900E-02    2.00000E-01    3.61700E-02   -4.65000E-01
    28    1.50370E-01    2.00000E-01    4.08000E-02   -4.42000E-01
    27    2.00440E-01    2.00000E-01    4.41300E-02   -4.55000E-01
    26    2.50390E-01    2.00000E-01    4.64700E-02   -4.59000E-01
    25    3.00500E-01    2.00000E-01    4.80000E-02   -4.62000E-01
    24    3.50500E-01    2.00000E-01    4.87900E-02   -4.80000E-01
    23    4.00470E-01    2.00000E-01    4.88600E-02   -5.05000E-01
    22    4.50300E-01    2.00000E-01    4.81200E-02   -5.47000E-01
    21    5.00390E-01    2.00000E-01    4.64800E-02   -5.76000E-01
    20    5.50250E-01    2.00000E-01    4.39400E-02   -5.80000E-01
    19    6.00290E-01    2.00000E-01    4.07500E-02   -3.97000E-01
    18    6.50320E-01    2.00000E-01    3.71100E-02   -3.07000E-01
    17    7.10260E-01    2.00000E-01    3.21900E-02   -2.38000E-01
    16    7.80260E-01    2.00000E-01    2.56100E-02   -1.60000E-01
    15    8.50210E-01    2.00000E-01    1.81400E-02   -5.80000E-02
    14    9.20270E-01    2.00000E-01    1.02100E-02    5.90000E-02
    13    9.85180E-01    2.00000E-01    2.65000E-03    1.76000E-01
ZONE T="Section  2", I =   34, j=1, F=POINT
    12    9.49370E-01    4.40000E-01   -7.35000E-03    1.43000E-01
    11    8.17050E-01    4.40000E-01   -2.18200E-02   -3.60000E-02
    10    6.66980E-01    4.40000E-01   -3.57900E-02   -1.51000E-01
     9    5.67050E-01    4.40000E-01   -4.29400E-02   -2.28000E-01
     8    4.67060E-01    4.40000E-01   -4.76900E-02   -2.69000E-01
     7    3.67050E-01    4.40000E-01   -4.88900E-02   -2.33000E-01
     6    2.67050E-01    4.40000E-01   -4.70600E-02   -1.81000E-01
     5    1.66990E-01    4.40000E-01   -4.20200E-02   -1.30000E-01
     4    4.90900E-02    4.40000E-01   -2.95800E-02   -4.50000E-02
     3    1.92200E-02    4.40000E-01   -2.24200E-02   -7.00000E-03
     2    5.20000E-03    4.40000E-01   -1.26100E-02    5.65000E-01
     1    3.10000E-04    4.40000E-01    2.77000E-03    7.81000E-01
    34    1.08000E-03    4.40000E-01    5.53000E-03    3.88000E-01
    33    7.89000E-03    4.40000E-01    1.53100E-02   -2.56000E-01
    32    1.90600E-02    4.40000E-01    2.23200E-02   -8.42000E-01
    31    3.40200E-02    4.40000E-01    2.67400E-02   -1.12700E+00
    30    5.91100E-02    4.40000E-01    3.11300E-02   -1.09200E+00
    29    9.91300E-02    4.40000E-01    3.61300E-02   -8.89000E-01
    28    1.49270E-01    4.40000E-01    4.07100E-02   -4.88000E-01
    27    1.99090E-01    4.40000E-01    4.40500E-02   -5.38000E-01
    26    2.50800E-01    4.40000E-01    4.64900E-02   -5.61000E-01
    25    2.99250E-01    4.40000E-01    4.79800E-02   -5.59000E-01
    24    3.49270E-01    4.40000E-01    4.87800E-02   -5.80000E-01
    23    3.99310E-01    4.40000E-01    4.88600E-02   -6.14000E-01
    22    4.48970E-01    4.40000E-01    4.81500E-02   -6.47000E-01
    21    4.99270E-01    4.40000E-01    4.65200E-02   -7.01000E-01
    20    5.49270E-01    4.40000E-01    4.39800E-02   -3.74000E-01
    19    5.99310E-01    4.40000E-01    4.08300E-02   -2.63000E-01
    18    6.49170E-01    4.40000E-01    3.71900E-02   -2.13000E-01
    17    7.08970E-01    4.40000E-01    3.22900E-02   -1.51000E-01
    16    7.79120E-01    4.40000E-01    2.57200E-02   -8.10000E-02
    15    8.49030E-01    4.40000E-01    1.82600E-02    1.00000E-02
    14    9.19290E-01    4.40000E-01    1.03200E-02    1.09000E-01
    13    9.83870E-01    4.40000E-01    2.83000E-03    2.11000E-01
ZONE T="Section  3", I =   34, j=1, F=POINT
    12    9.49990E-01    6.50000E-01   -7.37000E-03    1.57000E-01
    11    8.19860E-01    6.50000E-01   -2.15200E-02   -1.60000E-02
    10    6.70080E-01    6.50000E-01   -3.55300E-02   -1.43000E-01
     9    5.70330E-01    6.50000E-01   -4.27200E-02   -2.13000E-01
     8    4.70370E-01    6.50000E-01   -4.76000E-02   -2.79000E-01
     7    3.70090E-01    6.50000E-01   -4.89000E-02   -2.70000E-01
     6    2.70100E-01    6.50000E-01   -4.71600E-02   -1.96000E-01
     5    1.70100E-01    6.50000E-01   -4.22400E-02   -1.21000E-01
     4    5.01600E-02    6.50000E-01   -2.97500E-02   -9.00000E-03
     3    2.01000E-02    6.50000E-01   -2.27500E-02    2.60000E-02
     2    5.91000E-03    6.50000E-01   -1.32600E-02    5.90000E-01
     1    4.20000E-04    6.50000E-01    3.17000E-03    7.52000E-01
    34    2.22000E-03    6.50000E-01    8.06000E-03    3.25000E-01
    33    9.14000E-03    6.50000E-01    1.64000E-02   -3.24000E-01
    32    2.03600E-02    6.50000E-01    2.27300E-02   -9.18000E-01
    31    3.50800E-02    6.50000E-01    2.69300E-02   -1.18100E+00
    30    6.02200E-02    6.50000E-01    3.12800E-02   -1.14000E+00
    29    1.00290E-01    6.50000E-01    3.62600E-02   -1.03100E+00
    28    1.50320E-01    6.50000E-01    4.07800E-02   -9.41000E-01
    27    2.00290E-01    6.50000E-01    4.41100E-02   -5.44000E-01
    26    2.50240E-01    6.50000E-01    4.64700E-02   -5.94000E-01
    25    3.00080E-01    6.50000E-01    4.80000E-02   -6.32000E-01
    24    3.50240E-01    6.50000E-01    4.87900E-02   -6.64000E-01
    23    4.00370E-01    6.50000E-01    4.88600E-02   -6.92000E-01
    22    4.50100E-01    6.50000E-01    4.81300E-02   -7.25000E-01
    21    5.00240E-01    6.50000E-01    4.64900E-02   -3.01000E-01
    20    5.50420E-01    6.50000E-01    4.39200E-02   -2.36000E-01
    19    6.00710E-01    6.50000E-01    4.07300E-02   -2.05000E-01
    18    6.50260E-01    6.50000E-01    3.71100E-02   -1.64000E-01
    17    7.10340E-01    6.50000E-01    3.21800E-02   -1.21000E-01
    16    7.80080E-01    6.50000E-01    2.56300E-02   -5.20000E-02
    15    8.50010E-01    6.50000E-01    1.81500E-02    3.20000E-02
    14    9.20120E-01    6.50000E-01    1.02300E-02    1.23000E-01
    13    9.86110E-01    6.50000E-01    2.51000E-03    2.27000E-01
ZONE T="Section  4", I =   34, j=1, F=POINT
    12    9.49870E-01    8.00000E-01   -7.31000E-03    1.62000E-01
    11    8.22230E-01    8.00000E-01   -2.12500E-02   -5.00000E-03
    10    6.72160E-01    8.00000E-01   -3.53700E-02   -1.31000E-01
     9    5.72300E-01    8.00000E-01   -4.26100E-02   -2.05000E-01
     8    4.72200E-01    8.00000E-01   -4.75500E-02   -2.85000E-01
     7    3.72350E-01    8.00000E-01   -4.89100E-02   -2.83000E-01
     6    2.72300E-01    8.00000E-01   -4.72300E-02   -2.30000E-01
     5    1.72420E-01    8.00000E-01   -4.23800E-02   -1.43000E-01
     4    5.01700E-02    8.00000E-01   -2.97400E-02   -2.70000E-02
     3    1.99900E-02    8.00000E-01   -2.26800E-02    2.50000E-02
     2    6.11000E-03    8.00000E-01   -1.35500E-02    5.80000E-01
     1    0.00000E+00    8.00000E-01    0.00000E+00    7.52000E-01
    34    2.10000E-03    8.00000E-01    7.87000E-03    3.04000E-01
    33    8.93000E-03    8.00000E-01    1.61900E-02   -3.24000E-01
    32    2.01200E-02    8.00000E-01    2.27600E-02   -9.76000E-01
    31    3.53000E-02    8.00000E-01    2.70100E-02   -1.20600E+00
    30    6.01100E-02    8.00000E-01    3.12700E-02   -1.16100E+00
    29    1.00190E-01    8.00000E-01    3.62300E-02   -1.05800E+00
    28    1.50240E-01    8.00000E-01    4.07800E-02   -9.96000E-01
    27    2.00160E-01    8.00000E-01    4.41000E-02   -9.54000E-01
    26    2.50210E-01    8.00000E-01    4.64700E-02   -6.18000E-01
    25    3.00210E-01    8.00000E-01    4.79900E-02   -6.28000E-01
    24    3.50150E-01    8.00000E-01    4.87900E-02   -6.77000E-01
    23    3.99770E-01    8.00000E-01    4.88500E-02   -3.03000E-01
    22    4.50090E-01    8.00000E-01    4.81300E-02   -2.45000E-01
    21    5.00200E-01    8.00000E-01    4.64800E-02   -2.44000E-01
    20    5.50330E-01    8.00000E-01    4.39300E-02   -2.22000E-01
    19    6.00180E-01    8.00000E-01    4.07800E-02   -1.81000E-01
    18    6.50150E-01    8.00000E-01    3.71100E-02   -1.39000E-01
    17    7.09770E-01    8.00000E-01    3.22200E-02   -9.70000E-02
    16    7.80120E-01    8.00000E-01    2.56200E-02   -3.10000E-02
    15    8.50100E-01    8.00000E-01    1.81500E-02    4.30000E-02
    14    9.20050E-01    8.00000E-01    1.02300E-02    1.32000E-01
    13    9.84980E-01    8.00000E-01    2.67000E-03    2.25000E-01
ZONE T="Section  5", I =   45, j=1, F=POINT
    15    9.49770E-01    9.00000E-01   -7.31000E-03    1.50000E-01
    14    8.49540E-01    9.00000E-01   -1.82200E-02    3.00000E-02
    13    7.50030E-01    9.00000E-01   -2.85100E-02   -6.20000E-02
    12    6.49880E-01    9.00000E-01   -3.71300E-02   -1.30000E-01
    11    5.49830E-01    9.00000E-01   -4.39700E-02   -2.70000E-01
    10    4.49900E-01    9.00000E-01   -4.81400E-02   -2.68000E-01
     9    3.50160E-01    9.00000E-01   -4.88000E-02   -2.88000E-01
     8    2.50120E-01    9.00000E-01   -4.64600E-02   -2.77000E-01
     7    1.50540E-01    9.00000E-01   -4.08100E-02   -1.82000E-01
     6    1.00290E-01    9.00000E-01   -3.62500E-02   -1.21000E-01
     5    6.55000E-02    9.00000E-01   -3.20300E-02   -7.80000E-02
     4    4.03000E-02    9.00000E-01   -2.78800E-02   -7.90000E-02
     3    2.03000E-02    9.00000E-01   -2.28200E-02   -1.80000E-02
     2    5.87000E-03    9.00000E-01   -1.31400E-02    5.62000E-01
     1    5.70000E-04    9.00000E-01    3.79000E-03    7.26000E-01
    45    1.84000E-03    9.00000E-01    7.27000E-03   -1.82000E-01
    44    6.26000E-03    9.00000E-01    1.36100E-02   -1.81000E-01
    43    1.22800E-02    9.00000E-01    1.87300E-02   -5.76000E-01
    42    2.00600E-02    9.00000E-01    2.27200E-02   -9.85000E-01
    41    2.98800E-02    9.00000E-01    2.58100E-02   -1.18700E+00
    40    4.96600E-02    9.00000E-01    2.96600E-02   -1.19400E+00
    39    7.44800E-02    9.00000E-01    3.32200E-02   -1.14000E+00
    38    9.99400E-02    9.00000E-01    3.62100E-02   -1.09300E+00
    37    1.39860E-01    9.00000E-01    3.99500E-02   -1.04800E+00
    36    1.79790E-01    9.00000E-01    4.28600E-02   -1.00200E+00
    35    2.20010E-01    9.00000E-01    4.51500E-02   -9.99000E-01
    34    2.59640E-01    9.00000E-01    4.68100E-02   -9.81000E-01
    33    2.99830E-01    9.00000E-01    4.80000E-02   -3.41000E-01
    32    3.39850E-01    9.00000E-01    4.86900E-02   -1.95000E-01
    31    3.79860E-01    9.00000E-01    4.89200E-02   -1.80000E-01
    30    4.19590E-01    9.00000E-01    4.86700E-02   -2.08000E-01
    29    4.59750E-01    9.00000E-01    4.78900E-02   -2.38000E-01
    28    4.99600E-01    9.00000E-01    4.65000E-02   -2.20000E-01
    27    5.39590E-01    9.00000E-01    4.45200E-02   -2.00000E-01
    26    5.79610E-01    9.00000E-01    4.21400E-02   -1.62000E-01
    25    6.19870E-01    9.00000E-01    3.93800E-02   -1.38000E-01
    24    6.59680E-01    9.00000E-01    3.63700E-02   -1.07000E-01
    23    6.99700E-01    9.00000E-01    3.30800E-02   -8.50000E-02
    22    7.39400E-01    9.00000E-01    2.94900E-02   -5.70000E-02
    21    7.79600E-01    9.00000E-01    2.56700E-02   -2.10000E-02
    20    8.19370E-01    9.00000E-01    2.15700E-02    2.10000E-02
    19    8.59550E-01    9.00000E-01    1.70900E-02    5.90000E-02
    18    8.99400E-01    9.00000E-01    1.24600E-02    9.90000E-02
    17    9.47270E-01    9.00000E-01    7.55000E-03    1.56000E-01
    16    9.85060E-01    9.00000E-01    2.66000E-03    2.11000E-01
ZONE T="Section  6", I =   45, j=1, F=POINT
    15    9.49530E-01    9.60000E-01   -7.34000E-03    1.26000E-01
    14    8.49340E-01    9.60000E-01   -1.82300E-02    2.10000E-02
    13    7.49630E-01    9.60000E-01   -2.85400E-02   -5.60000E-02
    12    6.49800E-01    9.60000E-01   -3.71400E-02   -1.21000E-01
    11    5.49550E-01    9.60000E-01   -4.39600E-02   -1.73000E-01
    10    4.49980E-01    9.60000E-01   -4.81400E-02   -2.40000E-01
     9    3.49900E-01    9.60000E-01   -4.88000E-02   -2.54000E-01
     8    2.49970E-01    9.60000E-01   -4.64500E-02   -3.01000E-01
     7    1.50160E-01    9.60000E-01   -4.07800E-02   -2.93000E-01
     6    1.00190E-01    9.60000E-01   -3.62400E-02   -2.41000E-01
     5    6.52100E-02    9.60000E-01   -3.19800E-02   -1.70000E-01
     4    3.99900E-02    9.60000E-01   -2.80300E-02   -1.58000E-01
     3    1.98500E-02    9.60000E-01   -2.26800E-02   -7.40000E-02
     2    5.67000E-03    9.60000E-01   -1.30500E-02    5.10000E-01
     1    6.80000E-04    9.60000E-01    4.49000E-03    6.90000E-01
    45    1.90000E-03    9.60000E-01    7.49000E-03    2.29000E-01
    44    6.23000E-03    9.60000E-01    1.36500E-02   -1.52000E-01
    43    1.20900E-02    9.60000E-01    1.85100E-02   -5.98000E-01
    42    1.98300E-02    9.60000E-01    2.26800E-02   -9.83000E-01
    41    2.99100E-02    9.60000E-01    2.58400E-02   -1.19600E+00
    40    4.97200E-02    9.60000E-01    2.96700E-02   -1.22700E+00
    39    7.48800E-02    9.60000E-01    3.32900E-02   -1.17700E+00
    38    9.99100E-02    9.60000E-01    3.62000E-02   -1.13400E+00
    37    1.39830E-01    9.60000E-01    3.99400E-02   -1.12700E+00
    36    1.79990E-01    9.60000E-01    4.27200E-02   -1.13600E+00
    35    2.20100E-01    9.60000E-01    4.51400E-02   -5.59000E-01
    34    2.59960E-01    9.60000E-01    4.68100E-02   -2.82000E-01
    33    2.99940E-01    9.60000E-01    4.79900E-02   -1.59000E-01
    32    3.40080E-01    9.60000E-01    4.86900E-02   -1.79000E-01
    31    3.79940E-01    9.60000E-01    4.89100E-02   -2.18000E-01
    30    4.19880E-01    9.60000E-01    4.86700E-02   -2.38000E-01
    29    4.59760E-01    9.60000E-01    4.79000E-02   -2.42000E-01
    28    4.99940E-01    9.60000E-01    4.64900E-02   -2.16000E-01
    27    5.39880E-01    9.60000E-01    4.45000E-02   -1.97000E-01
    26    5.79910E-01    9.60000E-01    4.21000E-02   -1.52000E-01
    25    6.19700E-01    9.60000E-01    3.93900E-02   -1.26000E-01
    24    6.59790E-01    9.60000E-01    3.63500E-02   -1.04000E-01
    23    6.99760E-01    9.60000E-01    3.30800E-02   -7.40000E-02
    22    7.39700E-01    9.60000E-01    2.94600E-02   -5.60000E-02
    21    7.79620E-01    9.60000E-01    2.56700E-02   -2.70000E-02
    20    8.19650E-01    9.60000E-01    2.15400E-02    9.00000E-03
    19    8.59800E-01    9.60000E-01    1.70700E-02    4.00000E-02
    18    8.99770E-01    9.60000E-01    1.24100E-02    7.20000E-02
    17    9.48610E-01    9.60000E-01    7.42000E-03    1.22000E-01
    16    9.84620E-01    9.60000E-01    2.72000E-03    1.78000E-01
ZONE T="Section  7", I =   45, j=1, F=POINT
    15    9.49460E-01    9.90000E-01   -7.35000E-03    7.00000E-02
    14    8.49580E-01    9.90000E-01   -1.82100E-02   -9.00000E-03
    13    7.50020E-01    9.90000E-01   -2.85000E-02   -7.20000E-02
    12    6.49570E-01    9.90000E-01   -3.71500E-02   -1.18000E-01
    11    5.49670E-01    9.90000E-01   -4.39800E-02   -1.65000E-01
    10    4.49700E-01    9.90000E-01   -4.81600E-02   -2.17000E-01
     9    3.49730E-01    9.90000E-01   -4.87900E-02   -2.30000E-01
     8    2.49760E-01    9.90000E-01   -4.64500E-02   -2.74000E-01
     7    1.49960E-01    9.90000E-01   -4.07600E-02   -3.18000E-01
     6    1.00390E-01    9.90000E-01   -3.62700E-02   -3.42000E-01
     5    6.53600E-02    9.90000E-01   -3.20000E-02   -3.76000E-01
     4    4.02500E-02    9.90000E-01   -2.81300E-02   -3.36000E-01
     3    1.98500E-02    9.90000E-01   -2.26600E-02   -2.27000E-01
     2    5.78000E-03    9.90000E-01   -1.31300E-02    3.15000E-01
     1    5.00000E-04    9.90000E-01    3.51000E-03    6.36000E-01
    45    1.93000E-03    9.90000E-01    7.57000E-03    2.10000E-01
    44    6.30000E-03    9.90000E-01    1.36800E-02   -2.54000E-01
    43    1.26500E-02    9.90000E-01    1.88900E-02   -6.51000E-01
    42    2.01200E-02    9.90000E-01    2.27700E-02   -1.01800E+00
    41    2.99900E-02    9.90000E-01    2.58300E-02   -1.24400E+00
    40    4.99500E-02    9.90000E-01    2.97000E-02   -1.29100E+00
    39    7.48200E-02    9.90000E-01    3.32700E-02   -1.27500E+00
    38    9.99000E-02    9.90000E-01    3.62100E-02   -1.20900E+00
    37    1.39760E-01    9.90000E-01    3.99500E-02   -9.18000E-01
    36    1.79910E-01    9.90000E-01    4.28800E-02   -7.85000E-01
    35    2.19900E-01    9.90000E-01    4.51600E-02   -2.45000E-01
    34    2.59760E-01    9.90000E-01    4.68200E-02   -2.07000E-01
    33    2.99860E-01    9.90000E-01    4.80000E-02   -2.19000E-01
    32    3.39790E-01    9.90000E-01    4.86800E-02   -2.34000E-01
    31    3.79760E-01    9.90000E-01    4.89200E-02   -2.46000E-01
    30    4.19880E-01    9.90000E-01    4.86800E-02   -2.72000E-01
    29    4.59700E-01    9.90000E-01    4.78900E-02   -2.45000E-01
    28    4.99870E-01    9.90000E-01    4.64900E-02   -2.33000E-01
    27    5.39750E-01    9.90000E-01    4.45200E-02   -2.13000E-01
    26    5.79850E-01    9.90000E-01    4.21400E-02   -1.92000E-01
    25    6.19760E-01    9.90000E-01    3.94000E-02   -1.82000E-01
    24    6.59660E-01    9.90000E-01    3.63600E-02   -1.76000E-01
    23    6.99790E-01    9.90000E-01    3.30800E-02   -1.75000E-01
    22    7.39800E-01    9.90000E-01    2.94600E-02   -1.82000E-01
    21    7.79420E-01    9.90000E-01    2.57000E-02   -1.95000E-01
    20    8.19850E-01    9.90000E-01    2.15000E-02   -2.18000E-01
    19    8.59430E-01    9.90000E-01    1.71200E-02   -2.38000E-01
    18    8.99610E-01    9.90000E-01    1.24300E-02   -2.56000E-01
    17    9.49590E-01    9.90000E-01    7.33000E-03   -2.80000E-01
    16    9.84550E-01    9.90000E-01    2.74000E-03   -2.18000E-01
